<?xml version="1.0" encoding="UTF-8"?>

<!-- generated on 2024-04-07 04:25:19 by Eclipse SUMO libsumo Version 1.19.0
<configuration xmlns:xsi="http://www.w3.org/2001/XMLSchema-instance" xsi:noNamespaceSchemaLocation="http://sumo.dlr.de/xsd/libsumoConfiguration.xsd">

    <input>
        <net-file value="osm_bbox.net.xml"/>
        <route-files value="test.route.xml"/>
    </input>

    <output>
        <netstate-dump value="fcd.xml"/>
        <fcd-output value="myTrace.xml"/>
        <fcd-output.geo value="true"/>
    </output>

</configuration>
-->

<netstate xmlns:xsi="http://www.w3.org/2001/XMLSchema-instance" xsi:noNamespaceSchemaLocation="http://sumo.dlr.de/xsd/netstate_file.xsd">
</netstate>
