<?xml version="1.0" encoding="UTF-8"?>

<!-- generated on 2024-04-07 04:55:04 by Eclipse SUMO libsumo Version 1.19.0
<configuration xmlns:xsi="http://www.w3.org/2001/XMLSchema-instance" xsi:noNamespaceSchemaLocation="http://sumo.dlr.de/xsd/libsumoConfiguration.xsd">

    <input>
        <net-file value="osm_bbox.net.xml"/>
        <route-files value="test.route.xml"/>
    </input>

    <output>
        <fcd-output value="resault_fcd.xml"/>
        <fcd-output.geo value="true"/>
    </output>

    <time>
        <begin value="1000"/>
        <end value="1000000"/>
    </time>

</configuration>
-->

<fcd-export xmlns:xsi="http://www.w3.org/2001/XMLSchema-instance" xsi:noNamespaceSchemaLocation="http://sumo.dlr.de/xsd/fcd_file.xsd">
</fcd-export>
